Symbol,replaced_SMILES,logP
A,C[C@H](N)C(=O)O,-0.5817999999999999
dA,C[C@@H](N)C(=O)O,-0.5817999999999999
meA,CN[C@@H](C)C(=O)O,-0.3211000000000002
Me_dA,CN[C@H](C)C(=O)O,-0.3211000000000002
Ala(tBu),CC(C)(C)C[C@H](N)C(=O)O,0.8344999999999998
Ala(indol-2-yl),N[C@@H](Cc1cc2ccccc2[nH]1)C(=O)O,1.1223
dAla(indol-2-yl),N[C@H](Cc1cc2ccccc2[nH]1)C(=O)O,1.1223
Me_Ala(indol-2-yl),CN[C@@H](Cc1cc2ccccc2[nH]1)C(=O)O,1.3829999999999996
Ala(5-Tet),N[C@@H](Cc1nnn[nH]1)C(=O)O,-1.8459000000000003
Abu,CC[C@H](N)C(=O)O,-0.19169999999999998
dAbu,CC[C@@H](N)C(=O)O,-0.19169999999999998
Me_Abu,CC[C@H](NC)C(=O)O,0.06899999999999967
Me_dAbu,CC[C@@H](NC)C(=O)O,0.06899999999999967
Me_Abu(morpholino),CN[C@@H](CCN1CCOCC1)C(=O)O,-0.6186999999999989
2Abz,Nc1ccccc1C(=O)O,0.9670000000000001
Aib,CC(C)(N)C(=O)O,-0.19169999999999998
Aoc(2),CCCCCC[C@H](N)C(=O)O,1.3687
5-Ava,NCCCCC(=O)O,0.20000000000000012
Bal,NCCC(=O)O,-0.5802
Me_Bal,CNCCC(=O)O,-0.31949999999999995
HOCOCH2_Bal,O=C(O)CCNCC(=O)O,-0.8646999999999996
Cys(EtO2H)_NH2,NC(=O)[C@@H](N)CSCC(=O)O,-1.3832000000000002
Cha,N[C@@H](CC1CCCCC1)C(=O)O,1.3687
dCha,N[C@H](CC1CCCCC1)C(=O)O,1.3687
Me_Cha,CN[C@@H](CC1CCCCC1)C(=O)O,1.6294
D,N[C@@H](CC(=O)O)C(=O)O,-1.127
meD,CN[C@@H](CC(=O)O)C(=O)O,-0.8662999999999996
Asp_piperidide,N[C@@H](CC(=O)O)C(=O)N1CCCCC1,-0.19910000000000072
Asp(OMe),COC(=O)C[C@H](N)C(=O)O,-1.0385999999999993
Asp(Ph(2-NH2)),Nc1ccccc1C(=O)C[C@H](N)C(=O)O,0.2535000000000001
dAsp(pyrrol-1-yl),N[C@H](CC(=O)N1CCCC1)C(=O)O,-0.5892000000000004
E,N[C@@H](CCC(=O)O)C(=O)O,-0.7368999999999997
Glu_NH2,NC(=O)[C@@H](N)CCC(=O)O,-1.3362000000000005
Glu(3R-Me),C[C@H](CC(=O)O)[C@H](N)C(=O)O,-0.49089999999999906
Glu(OMe),COC(=O)CC[C@H](N)C(=O)O,-0.6484999999999999
dGlu(OMe),COC(=O)CC[C@@H](N)C(=O)O,-0.6484999999999999
F,N[C@@H](Cc1ccccc1)C(=O)O,0.641
dF,N[C@H](Cc1ccccc1)C(=O)O,0.641
meF,CN[C@@H](Cc1ccccc1)C(=O)O,0.9017
Me_dF,CN[C@H](Cc1ccccc1)C(=O)O,0.9017
Phe(4-F),N[C@@H](Cc1ccc(F)cc1)C(=O)O,0.7801
dPhe(4-F),N[C@H](Cc1ccc(F)cc1)C(=O)O,0.7801
Phe(4-CF3),N[C@@H](Cc1ccc(C(F)(F)F)cc1)C(=O)O,1.6598000000000002
Phe(4-NO2),N[C@@H](Cc1ccc([N+](=O)[O-])cc1)C(=O)O,0.5492000000000001
Phe(CHF2),N[C@@H](Cc1ccc(C(F)F)cc1)C(=O)O,1.5786000000000002
"dPhe(3,4-diF)",N[C@H](Cc1ccc(F)c(F)c1)C(=O)O,0.9192
Et_Phe,CCN[C@@H](Cc1ccccc1)C(=O)O,1.2918
H2NEt_Phe,NCCN[C@@H](Cc1ccccc1)C(=O)O,0.23059999999999942
Me_Phe(3-Cl),CN[C@@H](Cc1cccc(Cl)c1)C(=O)O,1.5551
Me_Phe(4-Cl),CN[C@@H](Cc1ccc(Cl)cc1)C(=O)O,1.5551
"Me_Phe(a,b-dehydro)",CN/C(=C\c1ccccc1)C(=O)O,1.3315000000000001
G,NCC(=O)O,-0.9702999999999999
Bn_Gly,O=C(O)CNCc1ccccc1,0.8607999999999996
Bn(4-Cl)_Gly,O=C(O)CNCc1ccc(Cl)cc1,1.5141999999999995
Bn(4-OH)_Gly,O=C(O)CNCc1ccc(O)cc1,0.5663999999999996
Bu_Gly,CCCCNCC(=O)O,0.4606999999999999
iBu_Gly,CC(C)CNCC(=O)O,0.3166
Et_Gly,CCNCC(=O)O,-0.31949999999999995
EtOEt_Gly,CCOCCNCC(=O)O,-0.3028999999999998
HOCOCH2_Gly_ol,O=C(O)CNCCO,-1.3470999999999997
MeOEt_Gly,COCCNCC(=O)O,-0.6929999999999994
NH2Bu_Gly,NCCCCNCC(=O)O,-0.6004999999999994
Pr_Gly,CCCNCC(=O)O,0.0706
PhEt_Gly,O=C(O)CNCCc1ccccc1,0.9032999999999993
PhPr_Gly,O=C(O)CNCCCc1ccccc1,1.2933999999999999
cHexCH2_Gly,O=C(O)CNCC1CCCCC1,1.2408999999999997
isoamyl_Gly,CC(C)CCNCC(=O)O,0.7066999999999999
pentyl_Gly,CCCCCNCC(=O)O,0.8507999999999998
3-pyridylethyl_Gly,O=C(O)CNCCc1cccnc1,0.29829999999999934
2-pyridylmethyl_Gly,O=C(O)CNCc1ccccn1,0.25579999999999964
d(N->O)Gly(allyl),C=CC[C@@H](O)C(=O)O,0.008000000000000007
GABA,NCCCC(=O)O,-0.19009999999999977
H,N[C@@H](Cc1c[nH]cn1)C(=O)O,-0.6359000000000001
Hph,N[C@@H](CCc1ccccc1)C(=O)O,1.0311
Me_Hph,CN[C@@H](CCc1ccccc1)C(=O)O,1.2918
bHph,N[C@H](CC(=O)O)Cc1ccccc1,1.0310999999999995
Hph(2-Cl),N[C@@H](CCc1ccccc1Cl)C(=O)O,1.6844999999999999
Hph(3-Cl),N[C@@H](CCc1cccc(Cl)c1)C(=O)O,1.6844999999999999
Hph(4-Cl),N[C@@H](CCc1ccc(Cl)cc1)C(=O)O,1.6844999999999999
Hse(Et),CCOCC[C@H](N)C(=O)O,-0.1750999999999998
dHyp,O=C(O)[C@H]1C[C@H](O)CN1,-1.2062
Hyp(Et),CCO[C@H]1CN[C@H](C(=O)O)C1,-0.1620000000000002
I,CC[C@H](C)[C@H](N)C(=O)O,0.44439999999999996
dI,CC[C@@H](C)[C@@H](N)C(=O)O,0.44439999999999996
meI,CC[C@H](C)[C@H](NC)C(=O)O,0.7051000000000001
Me_dI,CC[C@@H](C)[C@@H](NC)C(=O)O,0.7051000000000001
(N->O)xiIle,CCC(C)[C@H](O)C(=O)O,0.478
d(N->O)aIle,CC[C@H](C)[C@@H](O)C(=O)O,0.478
K,NCCCC[C@H](N)C(=O)O,-0.4726999999999995
dK,NCCCC[C@@H](N)C(=O)O,-0.4726999999999995
meK,CN[C@@H](CCCCN)C(=O)O,-0.21200000000000002
Me_dK,CN[C@H](CCCCN)C(=O)O,-0.21200000000000002
Lys(Ac),CC(=O)NCCCC[C@H](N)C(=O)O,-0.2952999999999993
Lys(Cbz),N[C@@H](CCCCNC(=O)OCc1ccccc1)C(=O)O,1.4949999999999992
Lys(iPr),CC(C)NCCCC[C@H](N)C(=O)O,0.5666000000000007
Lys(Me),CNCCCC[C@H](N)C(=O)O,-0.21200000000000002
Me_Lys(Me),CNCCCC[C@H](NC)C(=O)O,0.04870000000000013
Lys(Me2),CN(C)CCCC[C@H](N)C(=O)O,0.13020000000000037
Lys(Tfa),N[C@@H](CCCCNC(=O)C(F)(F)F)C(=O)O,0.24709999999999943
L,CC(C)C[C@H](N)C(=O)O,0.44439999999999996
dL,CC(C)C[C@@H](N)C(=O)O,0.44439999999999996
meL,CN[C@@H](CC(C)C)C(=O)O,0.7051000000000001
Me_dL,CN[C@H](CC(C)C)C(=O)O,0.7051000000000001
aMeLeu,CC(C)C[C@](C)(N)C(=O)O,0.8344999999999998
dLeu(3R-OH),CC(C)[C@@H](O)[C@@H](N)C(=O)O,-0.5848
(N->O)Leu,CC(C)C[C@H](O)C(=O)O,0.478
d(N->O)Leu,CC(C)C[C@@H](O)C(=O)O,0.478
M,CSCC[C@H](N)C(=O)O,0.1513999999999998
meM,CN[C@@H](CCSC)C(=O)O,0.41209999999999986
Met(O2),CS(=O)(=O)CC[C@H](N)C(=O)O,-1.1669999999999983
N,NC(=O)C[C@H](N)C(=O)O,-1.7263000000000002
dN,NC(=O)C[C@@H](N)C(=O)O,-1.7263000000000002
meN,CN[C@@H](CC(N)=O)C(=O)O,-1.4655999999999993
dAsn(Me2),CN(C)C(=O)C[C@@H](N)C(=O)O,-1.1233999999999988
Nal,N[C@@H](Cc1ccc2ccccc2c1)C(=O)O,1.7942
1-Nal,N[C@@H](Cc1cccc2ccccc12)C(=O)O,1.7942
d1-Nal,N[C@H](Cc1cccc2ccccc12)C(=O)O,1.7942
Nle,CCCC[C@H](N)C(=O)O,0.5884999999999998
Me_Nle,CCCC[C@H](NC)C(=O)O,0.8492
Me_dNle,CCCC[C@@H](NC)C(=O)O,0.8492
Nle(CHF2),N[C@@H](CCCCC(F)F)C(=O)O,1.2238
Nle(OH),N[C@@H](CCCCO)C(=O)O,-0.43910000000000055
Nva,CCC[C@H](N)C(=O)O,0.19839999999999997
dNva,CCC[C@@H](N)C(=O)O,0.19839999999999997
Me_Nva,CCC[C@H](NC)C(=O)O,0.45910000000000006
Me_dNva,CCC[C@@H](NC)C(=O)O,0.45910000000000006
Nva(Ph),N[C@@H](CCCc1ccccc1)C(=O)O,1.4212
Orn,NCCC[C@H](N)C(=O)O,-0.8627999999999991
P,O=C(O)[C@@H]1CCCN1,-0.177
dP,O=C(O)[C@H]1CCCN1,-0.177
3Pal,N[C@@H](Cc1cccnc1)C(=O)O,0.0360000000000002
4Pal,N[C@@H](Cc1ccncc1)C(=O)O,0.035999999999999754
Phg,N[C@H](C(=O)O)c1ccccc1,0.7709999999999999
Pip,O=C(O)[C@@H]1CCCCN1,0.21310000000000012
dPip,O=C(O)[C@H]1CCCCN1,0.21310000000000012
Pye,N[C@@H](CCC(=O)N1CCCC1)C(=O)O,-0.19910000000000033
dPye,N[C@H](CCC(=O)N1CCCC1)C(=O)O,-0.19910000000000033
Q,NC(=O)CC[C@H](N)C(=O)O,-1.3361999999999998
meQ,CN[C@@H](CCC(N)=O)C(=O)O,-1.0754999999999995
Gln(Me),CNC(=O)CC[C@H](N)C(=O)O,-1.0754999999999995
Gln(Me2),CN(C)C(=O)CC[C@H](N)C(=O)O,-0.7332999999999992
dGln(Me2),CN(C)C(=O)CC[C@@H](N)C(=O)O,-0.7332999999999992
Gln(Mes),CS(=O)(=O)NC(=O)CC[C@H](N)C(=O)O,-1.7456999999999985
R,N=C(N)NCCC[C@H](N)C(=O)O,-1.338429999999999
dR,N=C(N)NCCC[C@@H](N)C(=O)O,-1.338429999999999
"Arg(Me,Me)",C/N=C(\NC)NCCC[C@H](N)C(=O)O,-1.026699999999998
S,N[C@@H](CO)C(=O)O,-1.6093999999999997
dS,N[C@H](CO)C(=O)O,-1.6093999999999997
meS,CN[C@@H](CO)C(=O)O,-1.3486999999999996
Ser(Ac),CC(=O)OC[C@H](N)C(=O)O,-1.0385999999999993
Ser(Bn),N[C@@H](COCc1ccccc1)C(=O)O,0.6151
Ser(EtNMe2),CN(C)CCOC[C@H](N)C(=O)O,-1.0234999999999983
Ser(EtOH),N[C@@H](COCCO)C(=O)O,-1.5928
Ser(isoamyl),CC(C)CCOC[C@H](N)C(=O)O,0.4609999999999999
Ser(Me),COC[C@H](N)C(=O)O,-0.9552999999999991
dSer(Me),COC[C@@H](N)C(=O)O,-0.9552999999999991
Ser(Ph(2-Cl)),N[C@@H](COc1ccccc1Cl)C(=O)O,1.1307
Ser(Ph(3-Cl)),N[C@@H](COc1cccc(Cl)c1)C(=O)O,1.1307
Ser(Pr),CCCOC[C@H](N)C(=O)O,-0.1750999999999998
Ser(tBu),CC(C)(C)OC[C@H](N)C(=O)O,0.2134000000000001
Me_Ser(isoamyl),CN[C@@H](COCCC(C)C)C(=O)O,0.7216999999999996
Me_Ser(Pr),CCCOC[C@H](NC)C(=O)O,0.08559999999999962
Sar,CNCC(=O)O,-0.7096000000000002
Sta,CC(C)C[C@H](N)[C@@H](O)CC(=O)O,0.19539999999999969
"Sta(3R,4R)",CC(C)C[C@@H](N)[C@H](O)CC(=O)O,0.19539999999999969
T,C[C@@H](O)[C@H](N)C(=O)O,-1.2208999999999997
dT,C[C@H](O)[C@@H](N)C(=O)O,-1.2208999999999997
meT,CN[C@H](C(=O)O)[C@@H](C)O,-0.9601999999999997
Me_Bmt(E),C/C=C/C[C@@H](C)[C@@H](O)[C@H](NC)C(=O)O,0.6221999999999999
Tle,CC(C)(C)[C@H](N)C(=O)O,0.44439999999999996
Tza,N[C@@H](Cc1cscn1)C(=O)O,0.09749999999999986
Me_Tza,CN[C@@H](Cc1cscn1)C(=O)O,0.3581999999999996
V,CC(C)[C@H](N)C(=O)O,0.05430000000000007
dV,CC(C)[C@@H](N)C(=O)O,0.05430000000000007
meV,CN[C@H](C(=O)O)C(C)C,0.3149999999999997
Me_dV,CN[C@@H](C(=O)O)C(C)C,0.3149999999999997
(N->O)Val,CC(C)[C@H](O)C(=O)O,0.08789999999999998
d(N->O)Val,CC(C)[C@@H](O)C(=O)O,0.08789999999999998
(N->O)Val(3-OH),CC(C)(O)[C@H](O)C(=O)O,-0.7971999999999999
W,N[C@@H](Cc1c[nH]c2ccccc12)C(=O)O,1.1223000000000003
meW,CN[C@@H](Cc1c[nH]c2ccccc12)C(=O)O,1.383
Me_dW,CN[C@H](Cc1c[nH]c2ccccc12)C(=O)O,1.383
Trp(5-Br),N[C@@H](Cc1c[nH]c2ccc(Br)cc12)C(=O)O,1.8848000000000003
Trp(6-Br),N[C@@H](Cc1c[nH]c2cc(Br)ccc12)C(=O)O,1.8848000000000003
Trp(7-Br),N[C@@H](Cc1c[nH]c2c(Br)cccc12)C(=O)O,1.8848
Y,N[C@@H](Cc1ccc(O)cc1)C(=O)O,0.3466
dY,N[C@H](Cc1ccc(O)cc1)C(=O)O,0.3466
meY,CN[C@@H](Cc1ccc(O)cc1)C(=O)O,0.6072999999999997
Me_dY,CN[C@H](Cc1ccc(O)cc1)C(=O)O,0.6072999999999997
Tyr(3-F),N[C@@H](Cc1ccc(O)c(F)c1)C(=O)O,0.48570000000000013
Tyr(CHF2),N[C@@H](Cc1ccc(OC(F)F)cc1)C(=O)O,1.2424000000000002
Tyr(Me),COc1ccc(C[C@H](N)C(=O)O)cc1,0.6496
Me_Tyr(Me),CN[C@@H](Cc1ccc(OC)cc1)C(=O)O,0.9102999999999997
dTyr(bR-OMe),CO[C@H](c1ccc(O)cc1)[C@@H](N)C(=O)O,0.49159999999999987
(N->O)Tyr,O=C(O)[C@@H](O)Cc1ccc(O)cc1,0.38020000000000015
Mono1,O=C(O)CNCc1ccc2c(c1)OCO2,0.5894999999999995
Mono2,C[C@H]1CCN[C@@H]1C(=O)O,0.06899999999999973
Mono3,CN[C@@H](CCN1CCCCC1)C(=O)O,0.5349999999999999
Mono4,CN[C@@H](CC(=O)N1CCCCC1)C(=O)O,0.061600000000000044
Mono5,CN[C@@H](CC(=O)N1CCOCC1)C(=O)O,-1.0920999999999987
Mono6,CNCCCC(=O)O,0.07059999999999994
Bal(3-Me),C[C@H](N)CC(=O)O,-0.19170000000000004
Bal(d3-CF3),N[C@@H](CC(=O)O)C(F)(F)F,0.3506999999999998
Mono9,C=C(CCC(=O)O)c1ccc(C[C@H](N)C(=O)O)cc1,1.519
Mono10,C=C(CCC(=O)O)c1cccc(C[C@H](N)C(=O)O)c1,1.5190000000000001
Mono11,N[C@@H](Cc1ccc(CCCCCC(=O)O)cc1)C(=O)O,1.8285000000000002
Mono12,N[C@@H](Cc1cccc(CCCCC(=O)O)c1)C(=O)O,1.4384
Mono13,C[C@H](N)[C@@H](C(=O)NC(C)(C)C)N1CCC[C@H]1C(=O)O,0.16590000000000055
Mono14,CC[C@@H](C)[C@H](N)c1nc(C(=O)O)cs1,1.8872
Mono15,C/C=C/C[C@@H](C)[C@@H](OC(C)=O)[C@H](NC)C(=O)O,1.1929999999999998
Mono16,O=C(O)[C@H](O)CC(O)CCl,-0.5783000000000003
Mono17,C[C@@H](N)c1nc(C(=O)O)cs1,0.861
Mono18,CC[C@H](C)[C@H](N)C1=N[C@H](C(=O)O)[C@@H](C)O1,0.6302000000000001
Mono19,N[C@H](Cc1ccccc1)c1nc(C(=O)O)cs1,2.0838
Mono20,CC(C)[C@H](N)C1=N[C@H](C(=O)O)[C@@H](C)O1,0.2400999999999997
Mono23,C[C@@H](N)[C@H](N)C(=O)O,-1.2544999999999995
Mono24,C[C@H]([C@H](N)C(=O)O)[C@@H](C)C(N)=O,-0.844199999999999
Mono25,O=C(O)[C@@H]1C[C@@H](Cl)CCN1,0.43040000000000017
Mono26,CC[C@H](C)[C@@H](N)[C@@H](O)CC(=O)O,0.19539999999999969
Mono27,CC(C)[C@H](O)C(=O)[C@H](C)C(=O)O,0.2930999999999999
Mono28,C/C(=C\[C@@H](N)CC(C)C)C(=O)O,1.3907000000000003
Mono29,C/C(=C\[C@H](N)CC(C)C)C(=O)O,1.3907000000000003
Mono30,CC(C)C[C@H](N)c1nc(C(=O)O)cs1,1.8872
Mono31,CC(C)[C@H](N)c1nc(C(=O)O)cs1,1.4971
Mono32,O=C(O)CNCc1cccc(C(F)(F)F)c1,1.8795999999999997
Mono33,O=C(O)CNCN1CCOCC1,-1.0496999999999996
Mono34,CC(C)OCCCNCC(=O)O,0.4757
Mono35,CC[C@H](c1nnc([C@@H](N)Cc2ccccc2)o1)N1CCC[C@H]1C(=O)O,2.3122000000000003
Mono36,N[C@@H](Cc1ccccc1)c1nnc([C@@H](Cc2ccccc2)N2CCC[C@H]2C(=O)O)o1,3.1449000000000016
Mono37,CC(C)C[C@H](c1nnc([C@@H](N)Cc2ccccc2)o1)N1CCC[C@H]1C(=O)O,2.9483000000000015
Mono38,O=C(O)CNCC1CCOCC1,0.08719999999999994
Mono39,O=C(O)CNCCOc1ccccc1,0.7395999999999998
Mono40,Cn1cc(CCCNCC(=O)O)cn1,0.02690000000000009
Mono41,O=C(O)CNCCCN1CCCC1=O,-0.3269000000000002
Mono42,O=C(O)CNCCN1CCOCC1,-1.0071999999999994
Mono43,O=C(O)CNCCCCc1ccccc1,1.6834999999999998
Mono44,CC(C)Cc1cc(CNCC(=O)O)no1,1.0473000000000001
Mono45,O=C(O)CNCc1ccccc1Cn1cccn1,1.1055999999999997
Mono46,CC(C)(C)NC(=O)[C@H]([C@@H](N)CSc1ccccc1)N1CCC[C@H]1C(=O)O,1.9382999999999992
Mono47,CC(C)(C)NC(=O)[C@H]([C@@H]1CN1)N1CCC[C@H]1C(=O)O,-0.2094999999999983
Mono48,O=C(O)CNCCCc1ccc(F)cc1F,1.5716
Mono49,N[C@@H](COCc1cncc(F)c1)C(=O)O,0.1491999999999995
Mono50,N[C@@H](COCC(F)(F)C(F)F)C(=O)O,0.31529999999999964
Mono51,CN[C@@H](CCC1CCCC(F)(F)C1)C(=O)O,2.2647
Mono52,CN[C@@H](CCC1CCC(F)(F)CC1)C(=O)O,2.2647
Mono53,CN(C)c1ccc(C[C@H](N)C(=O)O)cn1,0.10199999999999987
Mono54,C[C@H](O)COC[C@H](N)C(=O)O,-1.2042999999999993
Mono55,CC(C)(O)COC[C@H](N)C(=O)O,-0.8141999999999996
Mono56,CC(C)(O)CCOC[C@H](N)C(=O)O,-0.4240999999999991
Mono57,CC(C)(C)NC(=O)COC[C@H](N)C(=O)O,-0.6703999999999983
Mono58,O=C(O)CNCCN1CCC(F)(F)CC1,0.3916999999999997
Mono59,O=C(O)[C@@H]1C[C@@H](N2CCC(F)(F)CC2)CN1,0.5326000000000002
Mono60,O=C(O)[C@@H]1C[C@H](N2CCC(F)(F)CC2)CN1,0.5326000000000002
Mono61,CCCC[C@@H](O)[C@H](N)C(=O)O,-0.05059999999999998
Mono62,N[C@@H](COCCN1CCOCC1)C(=O)O,-1.2528999999999986
Mono63,N[C@@H](CCc1noc(=O)[nH]1)C(=O)O,-1.2925999999999997
Mono64,C[C@@H](O)COC[C@H](N)C(=O)O,-1.2042999999999993
Mono65,N[C@@H](CCCC(O)C(F)(F)F)C(=O)O,0.4918
Mono66,N[C@@H](COCC(O)C(F)(F)F)C(=O)O,-0.6619000000000006
Mono67,CCC[C@H](C)[C@@H](O)[C@@H](C)[C@@H](O)C/C=C(\C)C(=O)O,2.2015
Mono68,CCC[C@H](C)[C@@H](O)[C@@H](C)[C@H](C/C=C(\C)C(=O)O)OC,2.855600000000001
Mono69,CCC[C@H](C)[C@@H](OC)[C@@H](C)[C@@H](O)C/C=C(\C)C(=O)O,2.855600000000001
Mono70,C/C=C/C[C@@H](C)C(=O)[C@H](NC)C(=O)O,0.8303999999999998
Mono71,CCOC(=O)n1cnc(C[C@H](N)C(=O)O)c1,-0.15789999999999976
Mono72,CCOC(=O)N(C(=O)CC[C@H](N)C(=O)O)C(=O)OCC,0.3200999999999998
Mono73,CCOC(=O)N(C(=O)C[C@H](N)C(=O)O)C(=O)OCC,-0.06999999999999984
Mono74,CCOC(=O)/N=C(/NCCC[C@H](N)C(=O)O)NC(=O)OCC,0.026700000000000612
Mono75,NCCCN[C@@H](Cc1ccccc1)C(=O)O,0.6206999999999998
Mono76,NCCCCN[C@@H](Cc1ccccc1)C(=O)O,1.0107999999999997
Mono77,NCCCCCN[C@@H](Cc1ccccc1)C(=O)O,1.4008999999999996
Mono78,NCCCCCCN[C@@H](Cc1ccccc1)C(=O)O,1.7909999999999995
Mono79,NCCCCCCCN[C@@H](Cc1ccccc1)C(=O)O,2.1810999999999994
Mono80,NCCCCCCCCN[C@@H](Cc1ccccc1)C(=O)O,2.5712
Mono81,NCCCCCCCCCN[C@@H](Cc1ccccc1)C(=O)O,2.9613000000000014
Mono82,NCCCCCCCCCCN[C@@H](Cc1ccccc1)C(=O)O,3.3514000000000017
Mono83,NCCCCCCNCC(=O)O,0.17970000000000041
Mono84,C[C@H](NCCCCCCN)C(=O)O,0.5682000000000005
Mono85,C[C@@H](NCCCCCCN)C(=O)O,0.5682000000000005
Mono86,CC(C)C[C@H](NCCCCCCN)C(=O)O,1.5943999999999998
Mono87,NCCCCCCN[C@H](Cc1ccccc1)C(=O)O,1.7909999999999995
Mono88,CN(CCCCCCN)[C@@H](Cc1ccccc1)C(=O)O,2.133199999999999
Mono89,NCCCCCCN(CC(=O)O)Cc1ccccc1,2.0922999999999994
Mono90,CNCCCCCCN[C@@H](Cc1ccccc1)C(=O)O,2.051699999999999
Mono91,CC(=O)N(CCCCCCN)[C@@H](Cc1ccccc1)C(=O)O,2.049899999999999
Mono92,C[C@H](CCCN)C(=O)O,0.44600000000000023
Mono93,C[C@@H](CCCN)C(=O)O,0.44600000000000023
Mono94,C[C@H](CCN)CC(=O)O,0.44600000000000023
Mono95,C[C@@H](CCN)CC(=O)O,0.44600000000000023
Mono96,C[C@@H](CN)CCC(=O)O,0.4460000000000002
Mono97,C[C@H](CN)CCC(=O)O,0.4460000000000002
Mono98,C[C@@H](N)CCCC(=O)O,0.5885000000000002
Mono99,C[C@H](N)CCCC(=O)O,0.5885000000000002
Mono100,CNC(=O)[C@@H](N)CSCC(=O)O,-1.1224999999999996
Mono101,CNC(=O)[C@H](CSCC(=O)O)NC,-0.8617999999999992
Mono102,O=C(O)c1csc([C@@H]2CCCN2)n1,1.2658
Mono103,CC[C@H](c1nnc([C@@H](N)Cc2ccccc2)o1)N1CCC[C@H]1c1nc(C(=O)O)cs1,3.7550000000000026
Mono104,CC(C)C[C@H](N)c1nc(C(=O)O)co1,1.4187
Mono105,CC[C@H](c1nnc([C@@H](N)Cc2ccc(O)cc2)o1)N1CCC[C@H]1c1nc(C(=O)O)cs1,3.460600000000002
Mono106,N[C@@H](Cc1ccccc1)c1nc(C(=O)O)co1,1.6153000000000002
Mono107,CC[C@@H](N[C@H](c1nc(C(=O)O)cs1)C(C)C)c1nnc([C@@H](N)Cc2ccccc2)o1,3.9048000000000025
Mono108,NC(=O)[C@@H](N)Cc1csc(C2=N[C@H](C(=O)O)CS2)c1,0.04980000000000023
Mono109,NC(=O)[C@@H](N)Cc1cc(C2=N[C@H](C(=O)O)CS2)cs1,0.04980000000000112
Mono110,NC(=O)[C@@H](N)Cc1cccc(C2=N[C@H](C(=O)O)CS2)c1,-0.011699999999998545
Mono111,NC(=O)[C@@H](N)Cc1cncc(C2=N[C@H](C(=O)O)CS2)c1,-0.6166999999999989
Mono112,NC(=O)[C@@H](N)CC1=N[C@H](C(=O)O)CS1,-1.2123999999999997
ac-,CC(=O)O,0.09089999999999993
deca-,CCCCCCCCCC(=O)O,3.2117000000000013
glyco-,O=C(O)CO,-0.9367000000000001
medl-,CN[C@H](CC(C)C)C(=O)O,0.7051000000000001
-pip,C1CCNCC1,0.7599
Mono21-,O=C/C=C/C=C/C(=O)O,0.3822999999999999
Mono22-,CCC(C)/C=C(C)/C=C\C(O)C(C)(O)C(=O)O,1.7314999999999998
dW,N[C@H](Cc1c[nH]c2ccccc12)C(=O)O,1.1223000000000003
Ala(O->S),C[C@H](N)C(O)=S,0.21900000000000025
dAla(O->S),C[C@@H](N)C(O)=S,0.21900000000000025
Phe(O->S),N[C@@H](Cc1ccccc1)C(O)=S,1.4418000000000002
Ile(O->S),CC[C@H](C)[C@H](N)C(O)=S,1.2452
Lys(O->S),NCCCC[C@H](N)C(O)=S,0.3281000000000008
Leu(O->S),CC(C)C[C@H](N)C(O)=S,1.2452
dLeu(O->S),CC(C)C[C@@H](N)C(O)=S,1.2452
Pro(O->S),OC(=S)[C@@H]1CCCN1,0.6238
dPro(O->S),OC(=S)[C@H]1CCCN1,0.6238
Thr(O->S),C[C@@H](O)[C@H](N)C(O)=S,-0.4201
dTrp(O->S),N[C@H](Cc1c[nH]c2ccccc12)C(O)=S,1.9231000000000003
Tyr(O->S),N[C@@H](Cc1ccc(O)cc1)C(O)=S,1.1474000000000002
Ac3c,NC1(C(=O)O)CC1,-0.4377000000000004
Abu(5-Tet),N[C@@H](CCc1nn[nH]n1)C(=O)O,-1.4558000000000002
Gly(allyl),C=CC[C@H](N)C(=O)O,-0.025599999999999845
-pyrro,C1CCNC1,0.36979999999999996
Aze,O=C(O)[C@@H]1CCN1,-0.5671000000000002
Bal(d3-Me),C[C@@H](N)CC(=O)O,-0.19170000000000004
Me_Bal(d3-Me),CN[C@H](C)CC(=O)O,0.06899999999999967
Bal(d3-EtPh),N[C@H](CCc1ccccc1)CC(=O)O,1.4211999999999998
meH,CN[C@@H](Cc1c[nH]cn1)C(=O)O,-0.3752000000000005
Phe(3-Cl),N[C@@H](Cc1cccc(Cl)c1)C(=O)O,1.2944000000000002
Phe(3-F),N[C@@H](Cc1cccc(F)c1)C(=O)O,0.7801000000000002
Phe(4-Cl),N[C@@H](Cc1ccc(Cl)cc1)C(=O)O,1.2944000000000002
Mono113,C[C@H](CN)C(=O)O,-0.3342000000000001
Ser(tBuOH),CC(C)(O)COC[C@H](N)C(=O)O,-0.8141999999999996
Val(3-OH),CC(C)(O)[C@H](N)C(=O)O,-0.8308
Mono114,CCNCCCC(=O)O,0.46069999999999983
Ac5c,NC1(C(=O)O)CCCC1,0.34249999999999936
"Hph(4-CF3,3,5-diF)",N[C@@H](CCc1cc(F)c(C(F)(F)F)c(F)c1)C(=O)O,2.3281
Hph(4-Me),Cc1ccc(CC[C@H](N)C(=O)O)cc1,1.33952
"Phe(3,5-diCl)",N[C@@H](Cc1cc(Cl)cc(Cl)c1)C(=O)O,1.9478
"Hph(4-CF3,3-Cl)",N[C@@H](CCc1ccc(C(F)(F)F)c(Cl)c1)C(=O)O,2.7033000000000005
Me_Phe(4-Me),CN[C@@H](Cc1ccc(C)cc1)C(=O)O,1.2101199999999999
Hph(4-tBu),CC(C)(C)c1ccc(CC[C@H](N)C(=O)O)cc1,2.3286000000000007
"Hph(3,4-diCl)",N[C@@H](CCc1ccc(Cl)c(Cl)c1)C(=O)O,2.3379
Hch,N[C@@H](CCC1CCCCC1)C(=O)O,1.7588
"Phe(3-Cl,5-F)",N[C@@H](Cc1cc(F)cc(Cl)c1)C(=O)O,1.4335000000000002
Me_Gly(cPent),CN[C@H](C(=O)O)C1CCCC1,0.8491999999999995
Phe(3-CF3),N[C@@H](Cc1cccc(C(F)(F)F)c1)C(=O)O,1.6598000000000002
Et_Phe(4-Me),CCN[C@@H](Cc1ccc(C)cc1)C(=O)O,1.60022
Hph(4-CF3),N[C@@H](CCc1ccc(C(F)(F)F)cc1)C(=O)O,2.0499
-nme2,CNC,-0.1644000000000001
Mono115,CCOC(=O)[C@H](CSCC(=O)O)NC,-0.044699999999999684
Chg,N[C@H](C(=O)O)C1CCCCC1,0.9785999999999992
Me_Chg,CN[C@H](C(=O)O)C1CCCCC1,1.2392999999999994
Et_Leu,CCN[C@@H](CC(C)C)C(=O)O,1.0952
Me_Ser(Me),CN[C@@H](COC)C(=O)O,-0.6946000000000001
Me_Hse(Me),CN[C@@H](CCOC)C(=O)O,-0.3045000000000005
Gly(cPr),N[C@H](C(=O)O)C1CC1,-0.19170000000000043
Me_Gly(cPr),CN[C@H](C(=O)O)C1CC1,0.06899999999999973
Gly(cBu),N[C@H](C(=O)O)C1CCC1,0.19839999999999947
Me_Gly(cBu),CN[C@H](C(=O)O)C1CCC1,0.45909999999999956
Gly(cPent),N[C@H](C(=O)O)C1CCCC1,0.5884999999999994
Ala(cPr),N[C@@H](CC1CC1)C(=O)O,0.19839999999999985
Ala(cBu),N[C@@H](CC1CCC1)C(=O)O,0.5884999999999998
Ala(cPent),N[C@@H](CC1CCCC1)C(=O)O,0.9785999999999997
Me_Nva(F2),CN[C@@H](CCC(F)F)C(=O)O,0.7042999999999998
-mor,C1COCCN1,-0.3938000000000001
-aze,C1CNC1,-0.02030000000000004
Mono116,CNCc1cn(CC(=O)O)nn1,-0.9178999999999997
Mono117,NCc1ccc(CN[C@@H](Cc2ccccc2)C(=O)O)[nH]1,1.2588999999999997
Mono118,CN(Cc1ccc(CN)[nH]1)[C@@H](Cc1ccccc1)C(=O)O,1.6010999999999997
Mono119,Cn1c(CN)ccc1CN[C@@H](Cc1ccccc1)C(=O)O,1.2692999999999992
Mono120,NCc1c[nH]c(CN[C@@H](Cc2ccccc2)C(=O)O)c1,1.258899999999999
Mono121,Cn1cc(CN)cc1CN[C@@H](Cc1ccccc1)C(=O)O,1.2692999999999992
Mono122,NCc1ccc(CN[C@@H](Cc2ccccc2)C(=O)O)o1,1.5237999999999998
Mono123,CN(Cc1ccc(CN)o1)[C@@H](Cc1ccccc1)C(=O)O,1.866
Mono124,CNCc1ccc(CN[C@@H](Cc2ccccc2)C(=O)O)o1,1.7845000000000002
Mono125,CNCc1ccc(CN(C)[C@@H](Cc2ccccc2)C(=O)O)o1,2.1266999999999996
Mono126,NCc1cccc(N(Cc2ccccc2[N+](=O)[O-])C(=O)c2cccc(C(=O)O)c2)c1,3.5987000000000027
Mono127,NCc1cccc(NC(=O)c2cccc(C(=O)O)c2)c1,2.0958